hcp

97  atoms
2  atom types

0.000000000000   11.792000000000      xlo xhi
0.000000000000   10.2121715614261      ylo yhi
0.000000000000   13.986660698208      zlo zhi
-5.8960000000000  0.000000000000   0.000000000000   xy xz yz

Atoms

1 1 1.474024078 1.133081227 0.6208019627
2 1 -0.03895498478 3.442429464 1.129832113
3 1 -1.490550807 6.110801206 1.237362882
4 1 -3.068480317 8.884725371 1.408852097
5 1 4.5914252 1.016221108 1.094564848
6 1 2.987003383 3.442429495 1.129832139
7 1 1.474024242 6.06081244 1.163657206
8 1 -0.07782291492 8.556071625 1.099390386
9 1 7.370024143 0.9595672145 1.231770791
10 1 5.957852884 3.571559473 1.084361906
11 1 4.438599337 6.110801202 1.237362825
12 1 3.025871295 8.55607152 1.099390451
13 1 10.14862325 1.016220976 1.094564944
14 1 8.782195703 3.57155969 1.08436193
15 1 7.370024194 6.055200339 1.240647439
16 1 6.016528567 8.884725649 1.408852348
17 1 0.120528761 1.327210575 3.253285492
18 1 -1.457400628 4.10113858 3.424776209
19 1 -2.908998112 6.769505354 3.53230689
20 1 -4.421975921 9.078854295 4.041334808
21 1 2.827519502 1.327210851 3.253285734
22 1 1.474024188 4.156735767 3.421489714
23 1 0.06185835603 6.640382249 3.577771482
24 1 -1.304579352 9.195710954 3.567576645
25 1 5.818174602 1.655864075 3.562752039
26 1 4.405449147 4.101138568 3.424776144
27 1 2.886190243 6.640382025 3.577771463
28 1 1.474024141 9.2523941 3.430362909
29 1 8.921873769 1.655864182 3.56275199
30 1 7.370024236 4.151118491 3.498475182
31 1 5.857046524 6.769505393 3.532306911
32 1 4.252627821 9.195711053 3.567576526
33 1 1.47402419 0.8406621468 5.94177968
34 1 -0.04114043559 3.17915624 5.666638582
35 1 -1.44451593 5.806263067 5.829807993
36 1 -2.766211313 8.349462329 5.946893367
37 1 4.321945366 0.7054447704 5.801913059
38 1 2.989188927 3.179156224 5.6666385
39 1 1.474024233 5.765300829 5.895925434
40 1 0.07341544498 8.416491167 5.902915262
41 1 7.37002429 0.7248398161 5.73610288
42 1 5.921245711 3.376882604 5.839293429
43 1 4.392564447 5.806263045 5.829808126
44 1 2.874632826 8.416490913 5.902915253
45 1 10.41810295 0.7054448185 5.801913023
46 1 8.818802814 3.376882663 5.839293479
47 1 7.370024236 5.926303696 5.839615597
48 1 5.714259723 8.349462367 5.946893332
49 1 -0.05893400515 1.657857051 8.210467857
50 1 -1.369456374 4.204178329 8.103766031
51 1 -2.949564319 6.715218176 8.171898642
52 1 -4.421975835 9.297718022 8.12083183
53 1 3.006982313 1.657857083 8.210467884
54 1 1.474024242 4.043314473 8.025996619
55 1 -0.05053854829 6.798729749 8.214951061
56 1 -1.424658249 9.356823672 8.161023967
57 1 5.90618266 1.65450994 8.060863244
58 1 4.317504943 4.204178189 8.103765992
59 1 2.998587018 6.798729637 8.214951141
60 1 1.474024232 9.299976521 8.231124408
61 1 8.833865756 1.654510007 8.060863286
62 1 7.370024135 4.265784952 8.21698772
63 1 5.897612853 6.715218356 8.171898669
64 1 4.372706609 9.356823669 8.161023942
65 1 1.474024166 0.9142243161 10.52797426
66 1 0.001610107754 3.496716307 10.47689866
67 1 -1.578493805 6.007761031 10.54502995
68 1 -2.889015664 8.554077922 10.43833095
69 1 4.471339277 0.8551097878 10.48777319
70 1 2.946438424 3.496716482 10.47689868
71 1 1.474024136 5.946148303 10.43181064
72 1 0.01018646048 8.557431188 10.58793668
73 1 7.370024231 0.9119670851 10.41767364
74 1 5.845458952 3.413209558 10.43384771
75 1 4.526542374 6.007760892 10.54502991
76 1 2.937861961 8.557431108 10.58793662
77 1 10.26870908 0.8551097891 10.48777321
78 1 8.89458951 3.413209662 10.43384762
79 1 7.370024249 6.168622146 10.62280338
80 1 5.837063985 8.554077955 10.43833098
81 1 -0.18174603 1.862475343 12.70190764
82 1 -1.503431303 4.405681227 12.81898989
83 1 -2.906810581 7.032779877 12.98215964
84 1 -4.42197581 9.371273254 12.70701798
85 1 3.129794434 1.862475389 12.70190761
86 1 1.474024231 4.28562815 12.8091802
87 1 0.02524714466 6.83505833 12.80950358
88 1 -1.574054573 9.506490442 12.84688682
89 1 5.969412461 1.795446824 12.74588207
90 1 4.4514798 4.405681206 12.81899003
91 1 2.92280138 6.835058274 12.80950353
92 1 1.474024291 9.487102628 12.91270173
93 1 8.770635817 1.795447094 12.74588208
94 1 7.370024231 4.446630181 12.75287112
95 1 5.854859087 7.032779846 12.98215955
96 1 4.522102893 9.506490389 12.84688687
97 2 -4.421975683 10.21205354 2.331069028
