hcp

97  atoms
2  atom types

0.000000000000   11.792000000000      xlo xhi
0.000000000000   10.2121715614261      ylo yhi
0.000000000000   13.986660698208      zlo zhi
-5.8960000000000  0.000000000000   0.000000000000   xy xz yz

Atoms

1 1 1.47399736894072 1.21099772144842 0.745420626894982
2 1 -0.116666095496644 3.42188376482546 1.14614664203685
3 1 -1.48095824079191 6.02725856537925 1.16964381400864
4 1 -3.0016579452824 8.86720508882536 1.35290871717513
5 1 4.56620812035316 0.91271183888833 1.11965334008632
6 1 3.06467591368894 3.42187821045188 1.14617205653349
7 1 1.47402831814383 5.92831501178568 1.15701262574826
8 1 -0.0161318317640724 8.48446386820163 1.14456668027947
9 1 7.3700661669682 0.90449597168118 1.19678354609428
10 1 5.93710346287854 3.50311619426814 1.15369702884343
11 1 4.42900342905548 6.02727914882824 1.16965039154474
12 1 2.96425010907553 8.48445297143431 1.14458994671956
13 1 10.1740266485385 0.912698718528923 1.11969880059498
14 1 8.80292682724409 3.50311230977494 1.15368988504561
15 1 7.37000990981488 6.13810403982685 1.22094782088843
16 1 5.95006185194624 8.86734262643355 1.35306487819855
17 1 0.0561346010482237 1.34062972527353 3.30851876161365
18 1 -1.46587846764236 4.18382088336921 3.49254905655114
19 1 -2.82945500855777 6.78810061901578 3.5164582529137
20 1 -4.42197629709482 8.99626822553307 3.91590815491043
21 1 2.89223956405914 1.34070280995342 3.30862744114985
22 1 1.47401210636781 4.07346620454567 3.44220137597626
23 1 0.041743291506227 6.70884450588914 3.50868081252004
24 1 -1.32930002251067 9.2989297066121 3.54271637948806
25 1 5.87903747647401 1.72776618687504 3.51749602925071
26 1 4.41391838439726 4.18382423270751 3.49254540782644
27 1 2.90629872256588 6.70882786585678 3.50869445726897
28 1 1.47407632709032 9.30816716083716 3.46556741727935
29 1 8.86109584069694 1.72777070731771 3.51747213165827
30 1 7.37002065852281 4.2829548210434 3.50551215556821
31 1 5.7774542362909 6.78809643392414 3.51648180942418
32 1 4.27756597017506 9.29896303510318 3.54266767665834
33 1 1.47399623155281 0.850107055322147 5.84144344144484
34 1 -0.0204373015741111 3.29507528183287 5.75109260702516
35 1 -1.45316372856691 5.89157855325355 5.8432474560598
36 1 -2.78388362700349 8.45535430509907 5.93683385538339
37 1 4.42002642981942 0.83686443189819 5.8125524632861
38 1 2.96842748908081 3.29507245811342 5.75107486763749
39 1 1.47398369758422 5.83982671396782 5.81299795058218
40 1 0.0607852741615673 8.46607955573105 5.84124627213072
41 1 7.37000861627315 0.800672764065327 5.80251746047255
42 1 5.92131451756707 3.42291967180044 5.83156257343618
43 1 4.40114899087999 5.8915475814602 5.84327226804202
44 1 2.88726868059083 8.46609439024344 5.84123699991541
45 1 10.3199817693377 0.836863089002165 5.81254670872424
46 1 8.81868218546156 3.42291760314166 5.83156145429199
47 1 7.3699924339105 6.06636405834857 5.81191642627611
48 1 5.73188911802353 8.45533652171195 5.93687787929648
49 1 -0.000243172076637821 1.66507010565079 8.14233529510825
50 1 -1.45460932916134 4.22338102459116 8.15149094552267
51 1 -2.94122570465906 6.77958724909521 8.19426452607653
52 1 -4.42199650188929 9.3461334090678 8.14917776693833
53 1 2.94820169685677 1.66508875736561 8.14234422882799
54 1 1.4739946161543 4.20127674344119 8.11033273880406
55 1 0.0127990203380515 6.78199972291558 8.15783813242582
56 1 -1.42561148205652 9.35451304827352 8.18882473578427
57 1 5.91191733823831 1.71879483781323 8.1404325183093
58 1 4.40258630260763 4.22335904626884 8.15149616359667
59 1 2.93518028602624 6.7819978600959 8.15783054235629
60 1 1.47399979870384 9.35679420647529 8.18212843798134
61 1 8.8280792411599 1.71879179568267 8.14043048593122
62 1 7.3699957572066 4.29323369099355 8.1615189126712
63 1 5.88921945010616 6.77956195376844 8.19428505762333
64 1 4.37359307327072 9.35450552713518 8.18881845680041
65 1 1.47401638778412 0.865939228953712 10.4989134165595
66 1 -0.00668797162126644 3.43288936324181 10.4544793062965
67 1 -1.49300032246601 5.98916476495842 10.497373596627
68 1 -2.9474636473951 8.54720680984468 10.5058554845423
69 1 4.47016117935368 0.858631368895039 10.4600941045618
70 1 2.95466840971844 3.43289019463211 10.4545070854466
71 1 1.47399616837789 5.91964863938827 10.4873864552321
72 1 0.0160217810608287 8.49447383268419 10.508708465989
73 1 7.36999609246379 0.856522485138589 10.4667380837382
74 1 5.90880233840436 3.43134567105485 10.4912666340578
75 1 4.44099743757305 5.98915536826034 10.4973807511445
76 1 2.93198409612387 8.49446726122363 10.5087181746857
77 1 10.26983020112 0.858601552879209 10.4601158033212
78 1 8.83118819624127 3.43132883904796 10.4912705186025
79 1 7.37000537822242 6.01154460786487 10.5386711505822
80 1 5.89545013224246 8.54720787615226 10.5058790506533
81 1 -0.163089015517816 1.75753558533185 12.7118602331394
82 1 -1.49391592464856 4.32074482146297 12.8060228166832
83 1 -2.92722454925713 6.91645873386095 12.8977706508257
84 1 -4.4219861898228 9.36027909055837 12.8057231647937
85 1 3.11110718757414 1.75752555171558 12.7119101810861
86 1 1.47398968507551 4.1473729650596 12.8370710423647
87 1 0.0255818783910584 6.79019564948122 12.8173208609526
88 1 -1.47694353375956 9.37610978575214 12.8364839131859
89 1 5.9564351334427 1.74668456643294 12.8077140487836
90 1 4.44191485106247 4.32073066919654 12.8060457068844
91 1 2.92242299422692 6.79019010793715 12.8173165888878
92 1 1.47401210706933 9.41298938224972 12.8462036561517
93 1 8.78362843051717 1.74666326913772 12.8077261684537
94 1 7.37000385202595 4.37256371255143 12.8364031177806
95 1 5.87522490328118 6.91645439896015 12.8977723548041
96 1 4.42497147703344 9.3760858063015 12.8365011461849
97 2 -4.46551856243999978 10.26285502764152646 2.46038766270507958
