LAMMPS data file via write_data, version 11 Aug 2017, timestep = 15

96 atoms
1 atom types

0.0000000000000000e+00 1.1792000000000000e+01 xlo xhi
0.0000000000000000e+00 1.0212171561426100e+01 ylo yhi
0.0000000000000000e+00 1.3986660698208000e+01 zlo zhi
-5.8959999999999999e+00 0.0000000000000000e+00 0.0000000000000000e+00 xy xz yz

Atoms # atomic

1 1 1.4740201237284258e+00 8.5108124732336365e-01 1.1656675187130954e+00 0 0 0
2 1 -6.6112363017012399e-05 3.4038696749909398e+00 1.1655180013015607e+00 0 0 0
3 1 -1.4740579509610352e+00 5.9570849488242859e+00 1.1655211285988054e+00 0 0 0
4 1 -2.9478827041207363e+00 8.5101870024450790e+00 1.1655356464629156e+00 0 0 0
5 1 4.4220487233241812e+00 8.5100044704305922e-01 1.1655410086228666e+00 0 0 0
6 1 2.9481063088115858e+00 3.4038693550348635e+00 1.1655179701970968e+00 0 0 0
7 1 1.4740201622698157e+00 5.9566232925560545e+00 1.1654350846849584e+00 0 0 0
8 1 2.3222200850092634e-04 8.5100012079875711e+00 1.1656583281043942e+00 0 0 0
9 1 7.3700200898886710e+00 8.5083811961088907e-01 1.1653437889958180e+00 0 0 0
10 1 5.8961919661323101e+00 3.4041363116088799e+00 1.1656037478756280e+00 0 0 0
11 1 4.4220979198906321e+00 5.9570848839126427e+00 1.1655211585132856e+00 0 0 0
12 1 2.9478081989484703e+00 8.5100014514837419e+00 1.1656582744410620e+00 0 0 0
13 1 1.0317991700977540e+01 8.5100044366973882e-01 1.1655409812846940e+00 0 0 0
14 1 8.8438482467503068e+00 3.4041360047342488e+00 1.1656037556329260e+00 0 0 0
15 1 7.3700202292383832e+00 5.9573594373618644e+00 1.1655489033390385e+00 0 0 0
16 1 5.8959230683289032e+00 8.5101867481556930e+00 1.1655356556338792e+00 0 0 0
17 1 -7.1641161223157113e-05 1.7018693204445270e+00 3.4966594655516490e+00 0 0 0
18 1 -1.4738991266549464e+00 4.2549679255232036e+00 3.4966722434215574e+00 0 0 0
19 1 -2.9478902767374859e+00 6.8081874262476738e+00 3.4966766679242571e+00 0 0 0
20 1 -4.4219798743109955e+00 9.3609681413473194e+00 3.4965286565414577e+00 0 0 0
21 1 2.9481119751266860e+00 1.7018690699430583e+00 3.4966594833734717e+00 0 0 0
22 1 1.4740202246912424e+00 4.2547048318059550e+00 3.4966445074520673e+00 0 0 0
23 1 1.8931121198395573e-04 6.8079245470160838e+00 3.4965907565163143e+00 0 0 0
24 1 -1.4739517525044512e+00 9.3610639787447596e+00 3.4966528843050297e+00 0 0 0
25 1 5.8962342733086022e+00 1.7020592571382342e+00 3.4965359019646285e+00 0 0 0
26 1 4.4219390804116152e+00 4.2549678505530615e+00 3.4966722671763644e+00 0 0 0
27 1 2.9478508798669401e+00 6.8079248371164685e+00 3.4965907535751075e+00 0 0 0
28 1 1.4740200982610254e+00 9.3612172501332118e+00 3.4968509616608081e+00 0 0 0
29 1 8.8438061282156220e+00 1.7020590111436773e+00 3.4965359612405216e+00 0 0 0
30 1 7.3700201708739019e+00 4.2554397142986495e+00 3.4967590721389779e+00 0 0 0
31 1 5.8959304550104505e+00 6.8081870773199000e+00 3.4966766300622498e+00 0 0 0
32 1 4.4219921756995202e+00 9.3610639456718427e+00 3.4966529177029018e+00 0 0 0
33 1 1.4740200084305946e+00 8.5087265495242193e-01 5.8277316992004549e+00 0 0 0
34 1 6.1061082383684351e-05 3.4039392166048135e+00 5.8278732864608465e+00 0 0 0
35 1 -1.4740694812620612e+00 5.9569859982697215e+00 5.8277064203385285e+00 0 0 0
36 1 -2.9479855073758086e+00 8.5102666384114691e+00 5.8278044872598036e+00 0 0 0
37 1 4.4223352117399619e+00 8.5094199514164548e-01 5.8277055472241388e+00 0 0 0
38 1 2.9479791380121370e+00 3.4039389435286092e+00 5.8278733860185774e+00 0 0 0
39 1 1.4740201755517446e+00 5.9567383736409774e+00 5.8277790565526209e+00 0 0 0
40 1 1.3914755703225978e-05 8.5098264088082871e+00 5.8277953215471729e+00 0 0 0
41 1 7.3700200997078529e+00 8.5104578355296900e-01 5.8279072662017661e+00 0 0 0
42 1 5.8960061861314896e+00 3.4039631997097857e+00 5.8277368628669119e+00 0 0 0
43 1 4.4221095373995833e+00 5.9569859721861400e+00 5.8277063852521671e+00 0 0 0
44 1 2.9480264223518668e+00 8.5098265920362266e+00 5.8277953744892539e+00 0 0 0
45 1 1.0317705218544956e+01 8.5094200043576695e-01 5.8277056411727148e+00 0 0 0
46 1 8.8440339729461819e+00 3.4039629560977573e+00 5.8277368733885151e+00 0 0 0
47 1 7.3700202069332565e+00 5.9572432088340390e+00 5.8278781517671794e+00 0 0 0
48 1 5.8960258329336490e+00 8.5102663433208896e+00 5.8278043865864522e+00 0 0 0
49 1 -8.6489951973689472e-06 1.7017959681446491e+00 8.1586525148270965e+00 0 0 0
50 1 -1.4740996534464830e+00 4.2550134905679764e+00 8.1588743225338973e+00 0 0 0
51 1 -2.9477536719833308e+00 6.8082220494262273e+00 8.1588871453426624e+00 0 0 0
52 1 -4.4219799759128637e+00 9.3608706538518227e+00 8.1590352055608140e+00 0 0 0
53 1 2.9480490013578753e+00 1.7017956733626398e+00 8.1586525188132075e+00 0 0 0
54 1 1.4740201462849365e+00 4.2548519089445298e+00 8.1590324173701916e+00 0 0 0
55 1 2.1483332515348508e-04 6.8078462425088180e+00 8.1588277662856417e+00 0 0 0
56 1 -1.4738678894627713e+00 9.3610102766298553e+00 8.1588325326624531e+00 0 0 0
57 1 5.8959949240423910e+00 1.7021613384634366e+00 8.1589671196582696e+00 0 0 0
58 1 4.4221396910586801e+00 4.2550136037029338e+00 8.1588743642247259e+00 0 0 0
59 1 2.9478252251876658e+00 6.8078464387132218e+00 8.1588277905939606e+00 0 0 0
60 1 1.4740200266805665e+00 9.3612035086820917e+00 8.1588673252132828e+00 0 0 0
61 1 8.8440453887937842e+00 1.7021610503335087e+00 8.1589672053339974e+00 0 0 0
62 1 7.3700202090846183e+00 4.2550717786366814e+00 8.1587323824340441e+00 0 0 0
63 1 5.8957936899204615e+00 6.8082217848907192e+00 8.1588870803738285e+00 0 0 0
64 1 4.4219084010924137e+00 9.3610102447221948e+00 8.1588325645154285e+00 0 0 0
65 1 1.4740200060521402e+00 8.5118023165748913e-01 1.0489821283911414e+01 0 0 0
66 1 -2.0209628388245804e-04 3.4038349014436329e+00 1.0489967924131603e+01 0 0 0
67 1 -1.4738581656448773e+00 5.9570404591576409e+00 1.0489980207693332e+01 0 0 0
68 1 -2.9479457833716394e+00 8.5102627767326133e+00 1.0490203585489239e+01 0 0 0
69 1 4.4221335068172998e+00 8.5105554071195055e-01 1.0490022813120266e+01 0 0 0
70 1 2.9482421102946184e+00 3.4038346449013406e+00 1.0489967873149483e+01 0 0 0
71 1 1.4740202003627183e+00 5.9569905877863603e+00 1.0490123336432504e+01 0 0 0
72 1 -7.4564769283469445e-06 8.5098993358917596e+00 1.0489887896414491e+01 0 0 0
73 1 7.3700200123033035e+00 8.5085335577986543e-01 1.0489987423272021e+01 0 0 0
74 1 5.8962169781095914e+00 3.4042155578704394e+00 1.0490027883487855e+01 0 0 0
75 1 4.4218982008749208e+00 5.9570405584844490e+00 1.0489980246368381e+01 0 0 0
76 1 2.9480477742531201e+00 8.5098996189833898e+00 1.0489887819007897e+01 0 0 0
77 1 1.0317906989125774e+01 8.5105552843635346e-01 1.0490022783691721e+01 0 0 0
78 1 8.8438231046159270e+00 3.4042153486771083e+00 1.0490027877112079e+01 0 0 0
79 1 7.3700201446293914e+00 5.9572150093680625e+00 1.0489821661483790e+01 0 0 0
80 1 5.8959861361380019e+00 8.5102624674505432e+00 1.0490203573355036e+01 0 0 0
81 1 3.1051468841081231e-05 1.7017901304735761e+00 1.2821049869741813e+01 0 0 0
82 1 -1.4738882586183841e+00 4.2550659298918641e+00 1.2821148274274316e+01 0 0 0
83 1 -2.9480163730610829e+00 6.8081166947117158e+00 1.2820982036564821e+01 0 0 0
84 1 -4.4219799724963327e+00 9.3611763205667504e+00 1.2821123949612263e+01 0 0 0
85 1 2.9480092588231845e+00 1.7017898370865940e+00 1.2821049769656430e+01 0 0 0
86 1 1.4740202135975791e+00 4.2548223310510513e+00 1.2820975663199400e+01 0 0 0
87 1 3.2304079677913933e-06 6.8080971229627805e+00 1.2821119781087891e+01 0 0 0
88 1 -1.4736662239469815e+00 9.3611216508748019e+00 1.2821149099678323e+01 0 0 0
89 1 5.8960160422480632e+00 1.7022331387236675e+00 1.2821060760369765e+01 0 0 0
90 1 4.4219283177137951e+00 4.2550658951895963e+00 1.2821148250486626e+01 0 0 0
91 1 2.9480369219122697e+00 6.8080973604890342e+00 1.2821119782522912e+01 0 0 0
92 1 1.4740201193979514e+00 9.3610094829383819e+00 1.2820947451217362e+01 0 0 0
93 1 8.8440242832017866e+00 1.7022329576060240e+00 1.2821060713135250e+01 0 0 0
94 1 7.3700201806753114e+00 4.2553242866425229e+00 1.2821076283931593e+01 0 0 0
95 1 5.8960565870864450e+00 6.8081164107470027e+00 1.2820982117856149e+01 0 0 0
96 1 4.4217066792414741e+00 9.3611216166828708e+00 1.2821149005978953e+01 0 0 0
