dummy trimer for testing purposes

3 atoms
2 atom types

0.0 20 xlo xhi
0.0 20 ylo yhi
0.0 20 zlo zhi

Atoms

1 2 7.9 10.0 10.0
2 1 12.1 10.0 10.0
3 1 10.0 13.6373 10.0
