LAMMPS data file via write_data, version 11 Aug 2017, timestep = 0

5 atoms
1 atom types

-1.0000000000000000e+02 1.0000000000000000e+02 xlo xhi
-1.0000000000000000e+02 1.0000000000000000e+02 ylo yhi
-1.0000000000000000e+02 1.0000000000000000e+02 zlo zhi

Atoms # atomic

1 1 2.3100000000000001e+01 2.3100000000000001e+01 2.3100000000000001e+01 0 0 0
2 1 0.0000000000000000e+00 0.0000000000000000e+00 0.0000000000000000e+00 0 0 0
3 1 2.1000000000000001e+00 2.1000000000000001e+00 2.1000000000000001e+00 0 0 0
4 1 0.0000000000000000e+00 0.0000000000000000e+00 4.2000000000000002e+00 0 0 0
5 1 2.1000000000000001e+00 2.1000000000000001e+00 6.2999999999999998e+00 0 0 0
