LAMMPS data file via write_data, version 11 Aug 2017, timestep = 0

25 atoms
1 atom types

-1.0000000000000000e+02 1.0000000000000000e+02 xlo xhi
-1.0000000000000000e+02 1.0000000000000000e+02 ylo yhi
-1.0000000000000000e+02 1.0000000000000000e+02 zlo zhi

Atoms # atomic

1 1 2.3100000000000001e+01 2.3100000000000001e+01 2.3100000000000001e+01 0 0 0
2 1 0.0000000000000000e+00 0.0000000000000000e+00 0.0000000000000000e+00 0 0 0
3 1 2.1000000000000001e+00 2.1000000000000001e+00 2.1000000000000001e+00 0 0 0
4 1 0.0000000000000000e+00 0.0000000000000000e+00 4.2000000000000002e+00 0 0 0
5 1 2.1000000000000001e+00 2.1000000000000001e+00 6.2999999999999998e+00 0 0 0
6 1 0.0000000000000000e+00 0.0000000000000000e+00 8.4000000000000004e+00 0 0 0
7 1 2.1000000000000001e+00 2.1000000000000001e+00 1.0500000000000000e+01 0 0 0
8 1 0.0000000000000000e+00 0.0000000000000000e+00 1.2600000000000000e+01 0 0 0
9 1 2.1000000000000001e+00 2.1000000000000001e+00 1.4699999999999999e+01 0 0 0
10 1 0.0000000000000000e+00 0.0000000000000000e+00 1.6800000000000001e+01 0 0 0
11 1 2.1000000000000001e+00 2.1000000000000001e+00 1.8899999999999999e+01 0 0 0
12 1 0.0000000000000000e+00 0.0000000000000000e+00 2.1000000000000000e+01 0 0 0
13 1 2.1000000000000001e+00 2.1000000000000001e+00 2.3100000000000001e+01 0 0 0
14 1 0.0000000000000000e+00 4.2000000000000002e+00 0.0000000000000000e+00 0 0 0
15 1 2.1000000000000001e+00 6.2999999999999998e+00 2.1000000000000001e+00 0 0 0
16 1 0.0000000000000000e+00 4.2000000000000002e+00 4.2000000000000002e+00 0 0 0
17 1 2.1000000000000001e+00 6.2999999999999998e+00 6.2999999999999998e+00 0 0 0
18 1 0.0000000000000000e+00 4.2000000000000002e+00 8.4000000000000004e+00 0 0 0
19 1 2.1000000000000001e+00 6.2999999999999998e+00 1.0500000000000000e+01 0 0 0
20 1 0.0000000000000000e+00 4.2000000000000002e+00 1.2600000000000000e+01 0 0 0
21 1 2.1000000000000001e+00 6.2999999999999998e+00 1.4699999999999999e+01 0 0 0
22 1 0.0000000000000000e+00 4.2000000000000002e+00 1.6800000000000001e+01 0 0 0
23 1 2.1000000000000001e+00 6.2999999999999998e+00 1.8899999999999999e+01 0 0 0
24 1 0.0000000000000000e+00 4.2000000000000002e+00 2.1000000000000000e+01 0 0 0
25 1 2.1000000000000001e+00 6.2999999999999998e+00 2.3100000000000001e+01 0 0 0
