dummy dimer for testing purposes

2 atoms
2 atom types

0.0 20 xlo xhi
0.0 20 ylo yhi
0.0 20 zlo zhi

Atoms

1 1 7.9 10.0 10.0
2 2 12.1 10.0 10.0
