# LAMMPS data file written by OVITO
2 atoms
1 atom types
0 2.939158916 xlo xhi
0 2.545386076 ylo yhi
0 4.641170979 zlo zhi
-1.469578981 0 0 xy xz yz

Atoms

1 1 -1.192092896e-06 1.696924806 1.160292745
2 1 1.469581127 0.8484611511 3.480878353
