hcp

97  atoms
2  atom types

0.000000000000   11.792000000000      xlo xhi
0.000000000000   10.2121715614261      ylo yhi
0.000000000000   13.986660698208      zlo zhi
-5.8960000000000  0.000000000000   0.000000000000   xy xz yz

Atoms

1 1 1.47397707541743 1.15486924661112 0.770509902779467
2 1 -0.070796084299581 3.40379826549397 1.14415256752494
3 1 -1.4733773180762 6.0089442358835 1.16611325515738
4 1 -2.90896356620516 8.71517451146374 1.30330918844006
5 1 4.53626340297425 0.904732598654492 1.1175379196682
6 1 3.01883503474939 3.4037578707057 1.14415112866008
7 1 1.47403184899335 5.93679334086963 1.15727292343197
8 1 0.00345471547070808 8.50344823917803 1.14803227995085
9 1 7.37003958936837 0.893588270267769 1.18191395743141
10 1 5.92571979034076 3.46874654985604 1.15738890985189
11 1 4.42145691433239 6.00894885869044 1.16611453605951
12 1 2.94467800378002 8.50345765016989 1.14803465257979
13 1 10.2038743756138 0.90474746929643 1.11755364227327
14 1 8.81433416180404 3.46873969364026 1.15739362670153
15 1 7.37003858790036 6.08405667359814 1.21679990787102
16 1 5.85714530642753 8.715233646492 1.30328576608857
17 1 -0.024349479194278 1.52326475729615 3.44337213459767
18 1 -1.46009025326211 4.20305577034544 3.48839120826542
19 1 -2.86201280675429 6.78434071689518 3.52518970305584
20 1 -4.42203775830394 9.07046905485134 3.82165434678314
21 1 2.97234024188229 1.52309014546995 3.44327842377465
22 1 1.47402177976074 4.14002591994699 3.47385309634081
23 1 0.0347870526624114 6.73931966003672 3.50216855978933
24 1 -1.36499891168464 9.31269847457251 3.55304883564112
25 1 5.88547087926947 1.71028570617117 3.51265731335499
26 1 4.40812907605814 4.2030358482605 3.4884020963375
27 1 2.91327419581495 6.73931129243901 3.50216213128349
28 1 1.47405422067204 9.32368830714045 3.48405764367465
29 1 8.85456660017744 1.71027273633428 3.5126572530821
30 1 7.3700206201595 4.26393905837892 3.5038355629294
31 1 5.81004753427876 6.78434582625207 3.52518708416762
32 1 4.31316536020817 9.31270989595696 3.55305571014941
33 1 1.47399788383584 0.838747176367518 5.79306428387937
34 1 -0.0131265283510578 3.32986296107513 5.77992691808047
35 1 -1.45457177138215 5.90416991371716 5.83994514933111
36 1 -2.82978395346171 8.45907498332201 5.91594465686695
37 1 4.42737600922086 0.830042913913444 5.82716563633171
38 1 2.96115124293303 3.3298240006197 5.77988491170196
39 1 1.47402127313954 5.87392352372344 5.82515751293057
40 1 0.0444764858513214 8.47247737954469 5.84153879322876
41 1 7.37001631155259 0.818039533045002 5.81214213526044
42 1 5.91416678738748 3.41723797608052 5.82724176457983
43 1 4.40260701886666 5.9041293398054 5.83995340656472
44 1 2.90359014894225 8.47246859008342 5.84152369817303
45 1 10.3126549096295 0.830028692003382 5.82718207377308
46 1 8.82589002984056 3.41723920082641 5.82722811657704
47 1 7.37001798997727 6.02182436362594 5.8212909175782
48 1 5.77780713061353 8.45902840487765 5.91598992151985
49 1 0.00511705698658094 1.67434221880367 8.14777521006868
50 1 -1.46172182697543 4.23177347928467 8.15221892096773
51 1 -2.94838106055565 6.77940469976121 8.18511300463704
52 1 -4.42196957781046 9.3557520609695 8.14034919631177
53 1 2.94291243814514 1.67434586698476 8.14776107225176
54 1 1.474033196656 4.21958061316726 8.13293789444587
55 1 0.00609030648264364 6.78990104527942 8.15975483317029
56 1 -1.43573136306312 9.35169068967282 8.18442369278606
57 1 5.90689608617542 1.71637823523394 8.14503429187503
58 1 4.40974313178195 4.23176277714891 8.15222450020776
59 1 2.94193434920007 6.78992135686251 8.15974475539845
60 1 1.47402937584613 9.35550304881903 8.17389586947616
61 1 8.83311813821227 1.71639741765655 8.14504137122523
62 1 7.37001149051042 4.27840637004018 8.16678633215079
63 1 5.89641235931067 6.77938301549228 8.18512831145883
64 1 4.38375879479743 9.35169235718696 8.18444718704228
65 1 1.47403065782872 0.863205797165597 10.4543326626968
66 1 -0.00622184733322095 3.43048247647078 10.4574787425192
67 1 -1.48964329223905 5.97939589565021 10.4926340495752
68 1 -2.95020860137366 8.53545794699047 10.4893391337017
69 1 4.45817652749479 0.854191247044407 10.460463671298
70 1 2.9542426544665 3.43047600790082 10.4575025218936
71 1 1.4740312789416 5.93248072611915 10.489198722107
72 1 0.0120679978766409 8.50046765305534 10.5022551378509
73 1 7.37002593574303 0.85912553945538 10.4641636957438
74 1 5.90333280368707 3.42503275775629 10.4929600836294
75 1 4.4376935367613 5.97937949994794 10.4926395503846
76 1 2.93599334902138 8.50045951419286 10.5022598702765
77 1 10.2818717311757 0.854188103526326 10.4604666046883
78 1 8.83669509743094 3.42502483391769 10.4929641656488
79 1 7.37002846926948 5.99800003624301 10.5317523232175
80 1 5.89826721551188 8.53545155915643 10.4893418198189
81 1 -0.12725750020145 1.75219810580304 12.7163449756945
82 1 -1.48597915633178 4.30783469375551 12.8112962858377
83 1 -2.93356396993077 6.89047781611407 12.8728479791302
84 1 -4.42196114510348 9.3606162715315 12.7186052686577
85 1 3.07530985335542 1.75215376357728 12.7163776485856
86 1 1.47402303655705 4.17834952775111 12.8381031025065
87 1 0.018978863753031 6.80159836950962 12.8162667671821
88 1 -1.48251893078939 9.37501281084674 12.832529060885
89 1 5.94287865961414 1.73719758013941 12.8027488815131
90 1 4.43400633614817 4.30782078704076 12.8113139776382
91 1 2.92908736047032 6.80160131211356 12.8162685303735
92 1 1.47403638223373 9.40715361237607 12.8276389297548
93 1 8.79719883361155 1.73719898270078 12.8027475449273
94 1 7.3700279876377 4.34484702023637 12.8354463025554
95 1 5.88159750999845 6.89048539335521 12.8728638814992
96 1 4.43060457448016 9.37501848562358 12.8325294954037
97 2 -4.42175508937903 9.88160536586864 2.0270785472478
