hcp

97  atoms
2  atom types

0.000000000000   11.792000000000      xlo xhi
0.000000000000   10.2121715614261      ylo yhi
0.000000000000   13.986660698208      zlo zhi
-5.8960000000000  0.000000000000   0.000000000000   xy xz yz

Atoms

1 1 1.474036277 1.179192452 1.165363212
2 1 -0.1262609857 3.430845074 1.1653632
3 1 -1.513852571 5.834224169 1.165363235
4 1 -2.663692284 8.345948604 1.165363206
5 1 4.444576425 0.8639576889 1.165363222
6 1 3.074333572 3.430845081 1.165363237
7 1 1.474036277 5.957029911 1.165363193
8 1 0.08644469944 8.606020397 1.165363179
9 1 7.370036269 0.8551447307 1.165363212
10 1 5.899674157 3.401886689 1.165363186
11 1 4.461925137 5.834224173 1.165363177
12 1 2.861627849 8.606020403 1.165363258
13 1 10.29549612 0.8639576755 1.16536319
14 1 8.840398431 3.401886679 1.165363212
15 1 7.370036287 5.931002784 1.165363217
16 1 5.611764841 8.34594861 1.165363206
17 1 -0.02231524806 1.705354976 3.539941773
18 1 -1.446692585 4.270746275 3.518916996
19 1 -2.95619795 6.786988953 3.53994184
20 1 -4.421963722 9.36108706 3.273131501
21 1 2.970387736 1.705354958 3.53994184
22 1 1.474036278 4.24540904 3.477320229
23 1 -0.008270877639 6.81284034 3.477320229
24 1 -1.459846434 9.378745793 3.539941788
25 1 5.906156039 1.707801093 3.51866771
26 1 4.394765184 4.270746275 3.518916976
27 1 2.956343454 6.812840306 3.477320238
28 1 1.474036256 9.329597075 3.518916998
29 1 8.833916497 1.707801042 3.518667703
30 1 7.370036294 4.243316001 3.518667709
31 1 5.904270499 6.786988925 3.539941785
32 1 4.407919029 9.378745792 3.539941833
33 1 1.474036145 0.7871790785 5.770958399
34 1 0.02388242203 3.409955349 5.862953483
35 1 -1.456871859 5.974696951 5.862953473
36 1 -3.003185797 8.541955397 5.770958402
37 1 4.455946079 0.870521909 5.896665392
38 1 2.924190234 3.409955466 5.862953459
39 1 1.474036261 5.957029918 5.768262177
40 1 -0.006718042572 8.486437254 5.8629535
41 1 7.370036285 0.8480844996 5.822668938
42 1 5.893559803 3.4054168 5.822668966
43 1 4.404944463 5.974697006 5.862953493
44 1 2.954790514 8.486437258 5.862953459
45 1 10.28412651 0.8705219866 5.896665412
46 1 8.846512752 3.405416804 5.822668947
47 1 7.370036252 5.917874272 5.896665386
48 1 5.951258443 8.541955204 5.770958398
49 1 0.05543233432 1.691078544 8.158693621
50 1 -1.501336992 4.239197283 8.15869354
51 1 -2.929687915 6.861458525 8.158693501
52 1 -4.421963721 9.361087061 8.158693565
53 1 2.8926402 1.691078542 8.158693483
54 1 1.474036283 4.308954142 8.158693551
55 1 0.04676080132 6.781067777 8.158693574
56 1 -1.511083991 9.318552643 8.158693613
57 1 5.913682551 1.712146481 8.15869356
58 1 4.449409579 4.2391973 8.158693578
59 1 2.90131177 6.781067768 8.158693551
60 1 1.47403628 9.392695018 8.158693539
61 1 8.826389976 1.712146478 8.158693568
62 1 7.370036302 4.234625179 8.158693559
63 1 5.877760486 6.86145851 8.158693592
64 1 4.459156555 9.318552625 8.158693511
65 1 1.47403638 0.7871790748 10.54642872
66 1 0.02388236199 3.40995545 10.45443366
67 1 -1.456871912 5.974697003 10.45443361
68 1 -3.003185874 8.541955203 10.54642872
69 1 4.455946016 0.8705220024 10.42072171
70 1 2.924190168 3.409955358 10.45443361
71 1 1.474036299 5.957029894 10.54912495
72 1 -0.006717945361 8.48643727 10.45443365
73 1 7.37003625 0.8480844759 10.49471817
74 1 5.893559845 3.405416814 10.49471817
75 1 4.404944436 5.974696975 10.45443365
76 1 2.954790562 8.486437265 10.45443361
77 1 10.28412648 0.8705219006 10.42072172
78 1 8.846512786 3.405416789 10.49471817
79 1 7.37003632 5.91787428 10.42072172
80 1 5.951258358 8.541955358 10.54642872
81 1 -0.02231522378 1.705354952 12.77744527
82 1 -1.44669258 4.27074628 12.79847014
83 1 -2.956197935 6.786988919 12.77744534
84 1 -4.421963723 9.361087056 13.04425561
85 1 2.970387782 1.70535499 12.77744533
86 1 1.474036302 4.24540902 12.84006688
87 1 -0.008270901564 6.812840319 12.84006686
88 1 -1.45984646 9.378745801 12.77744528
89 1 5.906156051 1.707801049 12.79871941
90 1 4.394765143 4.270746272 12.79847011
91 1 2.956343454 6.812840349 12.84006688
92 1 1.474036302 9.329597068 12.79847013
93 1 8.833916494 1.70780107 12.7987194
94 1 7.370036294 4.243316016 12.79871941
95 1 5.904270541 6.78698893 12.77744529
96 1 4.407918997 9.378745772 12.77744532
97 2 -4.421963732 9.361087068 1.165363204
