hcp

97  atoms
2  atom types

0.000000000000   11.792000000000      xlo xhi
0.000000000000   10.2121715614261      ylo yhi
0.000000000000   13.986660698208      zlo zhi
-5.8960000000000  0.000000000000   0.000000000000   xy xz yz

Atoms

1 1 1.47404203544793 1.07163619144635 1.16502752311915
2 1 -0.0482089540672581 3.43843694012933 1.16554563061858
3 1 -1.46823282157101 5.8979799894092 1.16558384016512
4 1 -2.75662508030509 8.39969825443402 1.16507266390587
5 1 4.43373588931841 0.857664862404927 1.1652108960655
6 1 2.99628180704632 3.43841845740915 1.16555096348661
7 1 1.47406043328236 5.95697264397169 1.16582804072667
8 1 0.0540427818910603 8.53464436106357 1.16556588902817
9 1 7.37006055162789 0.85385521732343 1.16557209755673
10 1 5.89849769474937 3.40258309016434 1.16562888294295
11 1 4.41627238892336 5.89804392748561 1.16554898329593
12 1 2.8940009695493 8.53461820671515 1.16553315355576
13 1 10.3063147774694 0.857685397367534 1.16526234012229
14 1 8.8415498146935 3.40252671805415 1.16556987967289
15 1 7.37005345927953 5.94358554046841 1.16522599239809
16 1 5.70476510671006 8.39974723045886 1.16503644104135
17 1 -0.00872959119185912 1.71613727504229 3.51337236511228
18 1 -1.47232877140648 4.25583795266489 3.51887571664159
19 1 -2.94005851257929 6.79325042116204 3.51338509453918
20 1 -4.42194869436859 9.36100960916723 3.39036062232051
21 1 2.95696957103092 1.71611412561252 3.51335383429293
22 1 1.47404253990241 4.24948377161742 3.47930980006207
23 1 -0.00468065770336157 6.81077150693188 3.47928214420823
24 1 -1.45721053274241 9.36163386795665 3.5133927381178
25 1 5.89811058641755 1.70309937496516 3.49901365013056
26 1 4.42039759664805 4.25592300242372 3.51887152105474
27 1 2.95278099078269 6.81079422028201 3.4793167017648
28 1 1.47409985855138 9.35927138662124 3.51887581202709
29 1 8.84199289084706 1.7031439492544 3.49904053367131
30 1 7.37008833942724 4.25264822080044 3.49899823734343
31 1 5.88820067878276 6.79319285787752 3.51334993205927
32 1 4.4053425375665 9.36158022537557 3.51336669332513
33 1 1.47409466832764 0.817751864319848 5.80536801289437
34 1 0.0116791583766616 3.40555677629011 5.83558651808139
35 1 -1.46670200956978 5.96630327524553 5.83552491163112
36 1 -2.97663576723877 8.52663331282113 5.80543504035394
37 1 4.43328114311934 0.857425063883507 5.83787376186932
38 1 2.93637358604772 3.4055599870091 5.83554267867238
39 1 1.47405346040994 5.95701424793876 5.81392500940834
40 1 -0.00436455299701066 8.49916483456403 5.83551969334086
41 1 7.37003878928783 0.851993177240271 5.82883909444576
42 1 5.89694917946112 3.40350538793652 5.8287679562463
43 1 4.41481381145898 5.96633202400631 5.83554234317633
44 1 2.95247457716605 8.49920639808076 5.83557969510231
45 1 10.3068886571181 0.857393752911794 5.83781419470376
46 1 8.84313871061417 3.40349982880739 5.82883093593414
47 1 7.37005079478182 5.94408378217109 5.83786079133268
48 1 5.92477962905934 8.52659659988867 5.80537633867572
49 1 0.0112119838853831 1.69557936413931 8.15868885191912
50 1 -1.47726653714716 4.25314211995856 8.15887473158534
51 1 -2.94791914744354 6.82087073673155 8.1586869428266
52 1 -4.42196439332712 9.36109708936376 8.15934453346702
53 1 2.93682468402489 1.6955990319607 8.15868918308754
54 1 1.47400508602107 4.26382901984306 8.15893340693392
55 1 0.0075902802156036 6.80371244569078 8.15889929291783
56 1 -1.48503671479335 9.35466173472057 8.15868418321454
57 1 5.89597335365537 1.70202521084474 8.15875838742933
58 1 4.42530928390236 4.25311238019952 8.1588171697739
59 1 2.94039420064285 6.80369873112663 8.15893450694806
60 1 1.47399278361437 9.36493029042622 8.15886832379606
61 1 8.84412064441002 1.70195643972905 8.1587344388451
62 1 7.36999095823002 4.25507764279706 8.15876228737385
63 1 5.89596044932445 6.82092065451293 8.15868309045022
64 1 4.43314207125996 9.3546574693145 8.15866641519444
65 1 1.4740206517009 0.818287197176056 10.5112456651079
66 1 0.0115994284391199 3.40571843439015 10.4821555750094
67 1 -1.46662459110209 5.96620472859123 10.4821631756348
68 1 -2.97620678854044 8.52638150508535 10.5111805766673
69 1 4.43326315647796 0.857462126259423 10.479280789054
70 1 2.93642645015037 3.40577253717464 10.482114795399
71 1 1.47396663831643 5.95706005224246 10.5038082296087
72 1 -0.00423159534867512 8.49914966899862 10.4821597686291
73 1 7.36998900921167 0.852043439212273 10.4888930369849
74 1 5.89689987964654 3.40352373041147 10.4889222935977
75 1 4.41465254603947 5.96617717768607 10.4821102461812
76 1 2.95230475822431 8.49920147037383 10.4821312954122
77 1 10.306790599848 0.857451911158945 10.4793073221825
78 1 8.84308417839644 3.40352271767422 10.4889083852856
79 1 7.37001691396152 5.94409136259599 10.4793080625365
80 1 5.92426582541661 8.52639150277326 10.5111929864253
81 1 -0.00897074676596799 1.71636465710126 12.8037916062639
82 1 -1.4725000661131 4.25584028104876 12.7990215540906
83 1 -2.93992649802089 6.7930371605789 12.8037509278979
84 1 -4.42192711527404 9.36092561750939 12.9284965646639
85 1 2.95700512161015 1.7163999452325 12.8037382304443
86 1 1.47401355105777 4.24985738431692 12.8387424624499
87 1 -0.00438982479141403 6.810607200523 12.8388173679511
88 1 -1.45695555994245 9.36164109551983 12.8037234979811
89 1 5.89819295036905 1.70325855349584 12.8185964275667
90 1 4.4205121718002 4.2558674808477 12.7990357595964
91 1 2.95242188374535 6.81060895908751 12.8387417223656
92 1 1.47402842281456 9.35943247414326 12.799017624367
93 1 8.84182196598619 1.70323903081301 12.8185470899105
94 1 7.37000401840572 4.25250622851084 12.8186057996072
95 1 5.88796276704672 6.79304006320972 12.8037343334778
96 1 4.40502576005578 9.36164641493154 12.8037548872162
97 2 -4.37527148595938442  9.39298669642577977 1.00839399959468845
