hcp

97  atoms
2  atom types

0.000000000000   11.792000000000      xlo xhi
0.000000000000   10.2121715614261      ylo yhi
0.000000000000   13.986660698208      zlo zhi
-5.8960000000000  0.000000000000   0.000000000000   xy xz yz

Atoms

1 1 1.62072581712949 1.09497982571718 0.802778301140886
2 1 -0.0336054440165736 3.40893310772636 1.16430008122442
3 1 -1.48249372410489 5.99165361685526 1.17583362024508
4 1 -2.96687169562577 8.62567292643123 1.21894681982847
5 1 4.47655350622381 0.931588614235725 1.10053592553829
6 1 3.03552938312906 3.4466283405271 1.13081124088895
7 1 1.47421839699443 5.94808744949194 1.16152732181504
8 1 -0.0375692733197424 8.51278299424485 1.16529661851195
9 1 7.34214672652412 0.895221361691614 1.1747244241163
10 1 5.92332225917387 3.48406234243476 1.15348688668238
11 1 4.42768855534487 6.03635561519792 1.1694052488885
12 1 2.93219828628947 8.49831084268645 1.14457180538193
13 1 10.1377713203535 0.923832263766907 1.10521599776723
14 1 8.80725392083658 3.46405422285149 1.15284798885123
15 1 7.37333370067984 6.06929180353336 1.1794454354611
16 1 5.88730816176727 8.78795094963243 1.28563749601701
17 1 -0.00817494271690367 1.4235243634888 3.37630315447297
18 1 -1.46821718185707 4.175749590916 3.4927781563294
19 1 -2.86039946142498 6.76561258387904 3.53146344914523
20 1 -4.27522792122405 9.11740165785168 3.85905431658833
21 1 2.93009289692483 1.587454354857 3.44398382217015
22 1 1.47742029589429 4.14283335434536 3.48287358974791
23 1 0.0273817758285748 6.7280807433064 3.50878608525259
24 1 -1.41950793387448 9.28065987168996 3.56182591759785
25 1 5.85868548250138 1.69933616914552 3.4969903676696
26 1 4.41349291347272 4.22066801814827 3.48643900476351
27 1 2.911282764534 6.74812007233008 3.50939768562826
28 1 1.44612379257733 9.31698131886185 3.48749977754795
29 1 8.82848645284885 1.71386702990798 3.51764924253481
30 1 7.37033090174191 4.26406898080795 3.50074591745103
31 1 5.8623790071567 6.80311025952348 3.49798635011239
32 1 4.24172399405921 9.28835053661424 3.55701473646493
33 1 1.47990963495435 0.87675377616966 5.82890733898154
34 1 -0.00917904954367121 3.31324298926719 5.76566384194391
35 1 -1.44370738720225 5.87834554409021 5.84476115664897
36 1 -2.81406632119207 8.41135890159274 5.97235221025012
37 1 4.39769373632309 0.809302372819494 5.80832116277732
38 1 2.98486255991873 3.34821984671126 5.80474971776436
39 1 1.48590912320588 5.87447276858331 5.82790905233268
40 1 0.0392183317325294 8.46944926353091 5.85234687875426
41 1 7.36015305316056 0.809101172432042 5.80849351560208
42 1 5.91847820114965 3.41099753782395 5.81594107495987
43 1 4.42808663182688 5.92938191272165 5.8223690771687
44 1 2.89801041756665 8.47611605629162 5.85343500259374
45 1 10.3182153762066 0.837690383794441 5.80686425097631
46 1 8.8265500505968 3.41336969321475 5.83927794931644
47 1 7.38282008991449 6.01378167149773 5.81533732846712
48 1 5.79782689482327 8.49713868694745 5.8669352406963
49 1 0.00417876513470161 1.67908273216591 8.14883464879944
50 1 -1.44601818564488 4.21602000383411 8.1639772805366
51 1 -2.9299339316697 6.75407082700107 8.20523064740998
52 1 -4.43632370228164 9.35667431189229 8.1673317626576
53 1 2.94898563555879 1.66978602153293 8.16171464668212
54 1 1.46479804433664 4.21678807737735 8.12934956341264
55 1 0.00887458681670505 6.79365078532185 8.1590769812766
56 1 -1.42295781284886 9.36047705587017 8.19684050769266
57 1 5.90268466705675 1.719506506608 8.12829481462313
58 1 4.42893525526599 4.25211758439024 8.14981790568504
59 1 2.94719709742146 6.78444810883179 8.15931576781136
60 1 1.47536540585184 9.3527965894843 8.18632433295939
61 1 8.83317377182049 1.70402941655911 8.14298873304124
62 1 7.36971052358366 4.27446587122172 8.16401984431191
63 1 5.90929327904816 6.80775265589454 8.16678824173502
64 1 4.39920380094456 9.34779614356703 8.18536504919592
65 1 1.45968793272083 0.855588851648931 10.4815032729483
66 1 0.0132448421357529 3.40447498030092 10.48210688646
67 1 -1.46710027384675 5.96006695499491 10.4991163075285
68 1 -2.94698451817151 8.54236347663656 10.4872759929594
69 1 4.47303809188395 0.851699572722416 10.4521413212145
70 1 2.96607195045839 3.45810797300492 10.4436767265639
71 1 1.47373244711322 5.93771659372076 10.4849066392572
72 1 0.006664529955696 8.49270659042639 10.52065282172
73 1 7.37136606440064 0.859374272369553 10.4625550947359
74 1 5.90488978894185 3.41855792411718 10.4898581736684
75 1 4.44997552129407 5.99614979985934 10.4848893195174
76 1 2.93714443447908 8.50814988551549 10.5059168591009
77 1 10.2952199334398 0.864367234027781 10.4634944664038
78 1 8.84320301830405 3.42774376495839 10.4895979302291
79 1 7.36085158144054 5.99541883437108 10.5196085724926
80 1 5.90013794358281 8.53310339824582 10.4999869501527
81 1 -0.0983307397457998 1.71511293449624 12.7818305662408
82 1 -1.46795102747015 4.28286314913945 12.8266056124398
83 1 -2.91116296854168 6.8641116409256 12.8443505330168
84 1 -4.4162491501539 9.33543144991092 12.8195491883187
85 1 3.08200392167344 1.80087089579844 12.6765774887493
86 1 1.48678884235448 4.19837533644321 12.8336160623678
87 1 0.0225106259905563 6.80119567776145 12.8329403427486
88 1 -1.49848702146607 9.40283812147812 12.8407358260373
89 1 5.93523877780314 1.74272290731203 12.796549949396
90 1 4.45226628191361 4.33382190434953 12.8041253540806
91 1 2.93054437849818 6.79883386253784 12.8096353050224
92 1 1.46404635420936 9.40312791643679 12.8404086183863
93 1 8.79400816266956 1.73608319060412 12.7954519357988
94 1 7.38190693756402 4.33771657393581 12.8210264057292
95 1 5.88678538110938 6.89884633803076 12.8830989982458
96 1 4.4221262070182 9.37450361763899 12.8419944703244
97 2 -4.77420331262448 10.2109504342405 2.32994732559709
