hcp

97  atoms
2  atom types

0.000000000000   11.792000000000      xlo xhi
0.000000000000   10.2121715614261      ylo yhi
0.000000000000   13.986660698208      zlo zhi
-5.8960000000000  0.000000000000   0.000000000000   xy xz yz

Atoms

1 1 1.490892422 0.8607670964 1.171039206
2 1 6.218168729e-09 3.458809046 1.068126262
3 1 -1.523013934 5.928801849 1.184307595
4 1 -2.900583479 8.48276703 1.068126256
5 1 4.409412039 0.8435288492 1.186965227
6 1 2.935223359 3.396898443 1.186965247
7 1 1.523013935 5.928801878 1.184307594
8 1 -1.132112936e-08 8.566739407 1.184307597
9 1 7.382587972 0.8435287885 1.18696525
10 1 5.896000002 3.404057189 1.187628244
11 1 4.421811377 5.971744295 1.186965228
12 1 2.900583485 8.482767026 1.068126266
13 1 10.30110774 0.8607670667 1.171039303
14 1 8.856776583 3.396898429 1.186965229
15 1 7.370188658 5.971744344 1.186965249
16 1 5.895999977 8.490637316 1.171039207
17 1 2.355288004e-08 1.721534273 3.491181052
18 1 -1.474188638 4.240427196 3.475254984
19 1 -2.960776584 6.815273151 3.475254999
20 1 -4.405107705 9.351404452 3.491180977
21 1 2.995416488 1.729404526 3.594093991
22 1 1.474188602 4.240427245 3.475255003
23 1 -3.447492826e-09 6.808114386 3.474591986
24 1 -1.486587999 9.36864279 3.475254978
25 1 5.896000015 1.645432169 3.477912633
26 1 4.372986055 4.283369677 3.47791263
27 1 2.960776643 6.815273141 3.475254982
28 1 1.486587994 9.36864273 3.475255003
29 1 8.796583512 1.72940452 3.594093997
30 1 7.419013942 4.283369703 3.477912629
31 1 5.895999994 6.753362509 3.594093991
32 1 4.405107549 9.351404421 3.491181085
33 1 1.474886676 0.851526203 5.820281798
34 1 -1.13969568e-08 3.387548383 5.82184452
35 1 -1.477704654 5.954961146 5.764731147
36 1 -2.962297007 8.518397368 5.821844536
37 1 4.450731084 0.8540394064 5.889494783
38 1 2.96498531 3.427426488 5.88949478
39 1 1.477704687 5.954961216 5.764731147
40 1 -3.693246945e-08 8.514420774 5.764731145
41 1 7.341268943 0.8540393683 5.889494781
42 1 5.896000005 3.404057193 5.776310874
43 1 4.410254262 5.930705683 5.889494779
44 1 2.962297039 8.518397349 5.82184452
45 1 10.31711334 0.8515262184 5.820281789
46 1 8.827014654 3.42742649 5.889494781
47 1 7.381745746 5.930705713 5.889494782
48 1 5.895999989 8.509119123 5.8202818
49 1 2.201764456e-08 1.705909869 8.163665696
50 1 -1.464722664 4.265963069 8.140151441
51 1 -2.933928905 6.810702995 8.140151422
52 1 -4.418638726 9.359216606 8.163665697
53 1 2.933008779 1.693373413 8.179662823
54 1 1.464722633 4.26596311 8.140151425
55 1 -7.547513143e-09 6.808114391 8.13056869
56 1 -1.469206281 9.347677082 8.140151439
57 1 5.896000021 1.726834549 8.184343418
58 1 4.443482584 4.242668485 8.18434341
59 1 2.933928941 6.810702981 8.140151441
60 1 1.469206266 9.347677031 8.140151426
61 1 8.858991224 1.693373416 8.179662823
62 1 7.34851741 4.24266852 8.184343418
63 1 5.895999995 6.825424734 8.179662824
64 1 4.418638702 9.359216634 8.163665696
65 1 1.477361309 0.8529549195 10.48521522
66 1 5.115019302e-09 3.386746813 10.46921811
67 1 -1.452517402 5.969503043 10.46453752
68 1 -2.962991215 8.518798147 10.46921811
69 1 4.426793729 0.8644945491 10.50872952
70 1 2.962071046 3.401468578 10.5087295
71 1 1.452517407 5.969503077 10.46453752
72 1 -2.018645207e-08 8.485337025 10.46453752
73 1 7.365206288 0.8644944957 10.5087295
74 1 5.896000003 3.404057193 10.51831225
75 1 4.431277356 5.946208463 10.50872951
76 1 2.962991211 8.518798147 10.46921811
77 1 10.31463871 0.8529549514 10.48521521
78 1 8.829928912 3.401468563 10.50872952
79 1 7.360722668 5.946208499 10.5087295
80 1 5.895999982 8.506261674 10.48521521
81 1 1.385362449e-08 1.703052474 12.82859909
82 1 -1.485745744 4.281465863 12.75938614
83 1 -2.931014645 6.784745062 12.75938614
84 1 -4.421113295 9.360645309 12.8285991
85 1 2.933702985 1.693774238 12.82703637
86 1 1.485745732 4.281465897 12.75938614
87 1 -7.783406428e-09 6.808114392 12.87257006
88 1 -1.445268932 9.35813221 12.75938614
89 1 5.896000039 1.697750805 12.88414979
90 1 4.418295306 4.25721034 12.88414979
91 1 2.931014676 6.784745063 12.75938615
92 1 1.445268906 9.358132173 12.75938615
93 1 8.858296987 1.693774215 12.82703635
94 1 7.373704661 4.257210408 12.88414979
95 1 5.896000009 6.824623112 12.82703636
96 1 4.421113282 9.360645323 12.82859909
97 2 5.896000002 10.21217154 2.331110229
