hcp

97  atoms
2  atom types

0.000000000000   11.792000000000      xlo xhi
0.000000000000   10.2121715614261      ylo yhi
0.000000000000   13.986660698208      zlo zhi
-5.8960000000000  0.000000000000   0.000000000000   xy xz yz

Atoms

1 1 1.47785061321086 0.853237288821686 1.12949633138669
2 1 -1.34133493023825e-06 3.42525719688216 1.14113159414396
3 1 -1.47951841436712 5.95391152722624 1.16583163378078
4 1 -2.92963491884857 8.49954026420105 1.14112823359109
5 1 4.42099089341312 0.853869637527597 1.15819474219911
6 1 2.94997178558615 3.40175726939264 1.15819760925397
7 1 1.47952003322857 5.95391321658586 1.16583249241485
8 1 4.09243198351561e-06 8.51651715215475 1.1658325775885
9 1 7.37100646416682 0.853867726038211 1.15819546471928
10 1 5.89600099907258 3.4040570725491 1.16909565835661
11 1 4.42497739070093 5.9565431520085 1.1581955173313
12 1 2.92964068057359 8.49954492309476 1.14112893233834
13 1 10.314137315597 0.853248149119973 1.12947594434727
14 1 8.84203042519992 3.40175890905024 1.15819618545733
15 1 7.36702464946411 5.95654362122701 1.15819649021635
16 1 5.89600037315213 8.50568715409694 1.12947884270941
17 1 6.47047849433591e-06 1.70647641293816 3.5327443699133
18 1 -1.4710212388795 4.2556188532358 3.50401753745479
19 1 -2.94601876457196 6.81041764032984 3.50402281202061
20 1 -4.41814587457023 9.3589302685481 3.53272558251492
21 1 2.96636641918178 1.71262684253989 3.52108826707785
22 1 1.47102545595645 4.25562462109403 3.50401988446896
23 1 2.07942566099462e-06 6.80811091186411 3.4931192338481
24 1 -1.47500395492793 9.35829880403639 3.5040173986811
25 1 5.89600343088397 1.69564955019664 3.49638718258526
26 1 4.41648095041556 4.25825619769274 3.49638881683674
27 1 2.94603072524406 6.81041023232816 3.5040164212166
28 1 1.47501206868426 9.35830176105151 3.50401744332574
29 1 8.82563407741389 1.71262883483889 3.52109019242161
30 1 7.3755227793192 4.25825454469822 3.49638836519168
31 1 5.89600161385604 6.7869061293377 3.52108655221493
32 1 4.41814202810341 9.35892415380554 3.53275819221416
33 1 1.48551711454366 0.85765793384332 5.82096202349045
34 1 1.32538829022977e-07 3.41255557054608 5.83426557608955
35 1 -1.47045822762479 5.95914359958993 5.82821018869607
36 1 -2.94063742647195 8.50589123040761 5.83424727696172
37 1 4.42527994534553 0.849720594159517 5.83409545322906
38 1 2.94851625966418 3.40754304584237 5.83409626215178
39 1 1.47045947064681 5.95914650946305 5.82821319266543
40 1 -4.75692090162738e-08 8.50605573586237 5.82821058339267
41 1 7.36672444565633 0.849722471769466 5.83409690399758
42 1 5.89599852639323 3.40405868529562 5.81918510451678
43 1 4.41923812243773 5.95491009305474 5.83409348264041
44 1 2.94064057311119 8.50589470060251 5.83426169863478
45 1 10.3064850593559 0.857663992104281 5.82096230735558
46 1 8.8434840825465 3.40754331160295 5.83409612988963
47 1 7.37275976473485 5.95491001162665 5.83409564600244
48 1 5.89600335519387 8.49684904308639 5.82095927504249
49 1 2.82339003987442e-06 1.70058247721611 8.16311811175083
50 1 -1.47580936658792 4.25731376253744 8.16104253103689
51 1 -2.94696385206299 6.80542691427849 8.16104063424923
52 1 -4.42325602185364 9.36187890771442 8.16311463228782
53 1 2.94448675509725 1.69999893024917 8.1663859693869
54 1 1.47580807907816 4.25731413567559 8.16104772949672
55 1 1.65320051737083e-06 6.80811689874776 8.15427351624885
56 1 -1.47115609841843 9.36160527481628 8.16104401489556
57 1 5.89600181105275 1.7076816452196 8.16102302792003
58 1 4.42689387495111 4.2522454227103 8.16102198429896
59 1 2.94696401905055 6.80542816840932 8.16104496757597
60 1 1.47115472237716 9.36160182738159 8.16104516358255
61 1 8.84751505113086 1.70000258684826 8.16638533656735
62 1 7.3651058991191 4.25224683747811 8.16102332450603
63 1 5.89599793054868 6.8121667995939 8.16637657802055
64 1 4.42324340872597 9.36187601421632 8.16311329722541
65 1 1.47274457108998 0.850292396841985 10.4857685553748
66 1 -2.92855110628487e-06 3.40000513963627 10.4825023850928
67 1 -1.46910751015967 5.95992944617308 10.4878580300598
68 1 -2.95151455087317 8.51217356867711 10.4824994660687
69 1 4.42484211732836 0.850570527262583 10.4878404214307
70 1 2.94902803758032 3.40674421883889 10.4878382000908
71 1 1.46910562603853 5.95993011066428 10.4878628043927
72 1 -2.35413866267464e-06 8.50449784746906 10.4878579279375
73 1 7.36715718692017 0.850572055461099 10.4878386746449
74 1 5.89599730600743 3.4040601377107 10.494606490032
75 1 4.42019001351339 5.95486120272606 10.4878363118045
76 1 2.95150967652368 8.51217269529689 10.4824996535692
77 1 10.3192512346326 0.850295371322081 10.4857717289461
78 1 8.84296032952384 3.40674566571865 10.4878355939606
79 1 7.37180579051299 5.95486534924023 10.4878380053286
80 1 5.89599612603548 8.51158479576642 10.4857697101238
81 1 1.39407014865256e-06 1.71532546784127 12.8279284331647
82 1 -1.47675824094449 4.2572641482887 12.8147857112112
83 1 -2.94748121815583 6.8046269763729 12.8147846841357
84 1 -4.41048093090836 9.35451099610055 12.8279205958243
85 1 2.95535824895914 1.70627694805378 12.8146204827689
86 1 1.47676306952067 4.25726243248603 12.8147889351798
87 1 -7.34881488995143e-09 6.80811583520465 12.8296961407522
88 1 -1.47072100676962 9.36245185643808 12.814784072036
89 1 5.89600260465589 1.70611759202325 12.8206622594496
90 1 4.42554127184933 4.25302484642769 12.8206615396746
91 1 2.94748712766716 6.80463223872563 12.8147879294664
92 1 1.47072417223115 9.36245294292604 12.8147842566027
93 1 8.83664291469549 1.70627878869104 12.8146254337204
94 1 7.36645821649091 4.25302714555371 12.8206626369663
95 1 5.89599965099965 6.79962100485518 12.8146171046153
96 1 4.41048220366331 9.35450481015042 12.8279257330667
97 2 5.83086998117195687 10.13668175320810150 2.47467956968503122
