hcp

97  atoms
2  atom types

0.000000000000   11.792000000000      xlo xhi
0.000000000000   10.2121715614261      ylo yhi
0.000000000000   13.986660698208      zlo zhi
-5.8960000000000  0.000000000000   0.000000000000   xy xz yz

Atoms

1 1 1.53928060314946 1.10257642306579 1.11694474699643
2 1 -0.0352659691832533 3.43365551768111 1.16763330486944
3 1 -1.50235476312798 6.00420417907226 1.16582459169563
4 1 -3.02223664067162 8.55440545419785 1.17120493280009
5 1 4.41578052445928 0.875509365994367 1.15481999469117
6 1 3.00575418903177 3.44700121697332 1.13853434581005
7 1 1.44121748238884 5.97645381029606 1.17271331324319
8 1 -0.054531622431524 8.51161726510992 1.1659095731263
9 1 7.36521064294827 0.857447645381089 1.16256626902315
10 1 5.90089654810665 3.40248434730671 1.17972746884135
11 1 4.41438085754834 5.88929364636258 1.13892848589774
12 1 2.90539588315598 8.52601714003998 1.16733210337281
13 1 10.2900400200604 0.867406923327912 1.1632011486088
14 1 8.83628354740729 3.4057840344049 1.16263350154767
15 1 7.34626896109972 5.95222207048975 1.15515903739345
16 1 5.71335609360856 8.333179555105 1.11827318089882
17 1 -0.057916462464019 1.76724919849218 3.54581863946715
18 1 -1.46708245349391 4.27923177403652 3.49976521937524
19 1 -2.92754201471132 6.82226618999105 3.51652726138412
20 1 -4.31227850923268 9.29856700761488 3.64346570205669
21 1 3.00273660888526 1.75698827895496 3.51183528918645
22 1 1.47968520024028 4.23232834781361 3.48372204310291
23 1 0.0168632851904493 6.79797642869514 3.51030921966632
24 1 -1.47543125047247 9.33707123885129 3.51668235549751
25 1 5.90503370292153 1.68526772959405 3.50130786743621
26 1 4.41086161484125 4.26250949718501 3.51154645475793
27 1 2.96912364099068 6.813927771497 3.48426817900418
28 1 1.45625571410858 9.34292580274633 3.49967420416861
29 1 8.84696887203543 1.70034249720516 3.49432903374947
30 1 7.38936720814618 4.25652480346557 3.50134932244972
31 1 5.87614703650874 6.73567638059439 3.51187630926195
32 1 4.33423630672788 9.37642117873194 3.54622547940063
33 1 1.47312565383814 0.868933329847141 5.80270182986923
34 1 0.00186889667063728 3.42416171029152 5.83496015427438
35 1 -1.47024067441838 5.94774030244315 5.84061191852249
36 1 -2.90048868294138 8.4827410260678 5.89354794900544
37 1 4.42216946233535 0.83386189739351 5.82689521711758
38 1 2.95128247396695 3.40794183137076 5.84092279883767
39 1 1.48733747827257 5.94889015685101 5.82268947305699
40 1 0.00993097139658428 8.51114804835467 5.84055848450495
41 1 7.37672847215781 0.843657522593576 5.82244102678106
42 1 5.90130698754937 3.40114863169462 5.81878632788344
43 1 4.42061300819667 5.95321759429022 5.84090704809293
44 1 2.93101837184138 8.49805264689022 5.83557344237876
45 1 10.3131926597823 0.853755818785739 5.83964518886109
46 1 8.85347577449991 3.40187134551649 5.82246669701629
47 1 7.38481307730191 5.9658412499652 5.82681385868984
48 1 5.8804456929628 8.50318474129554 5.80300742602862
49 1 0.00907286799870133 1.7075540548246 8.15819669832666
50 1 -1.47222413705595 4.25108204169126 8.16791523414008
51 1 -2.94290565213794 6.78900418278088 8.17844906903828
52 1 -4.44056760408889 9.37209736092288 8.13169641357411
53 1 2.94932252755033 1.68608026771951 8.14970606574462
54 1 1.47498398161484 4.25995128023544 8.16057693366492
55 1 0.00364087634582066 6.8058258079423 8.1582357748691
56 1 -1.45489168192783 9.36616587555975 8.17841709583503
57 1 5.90011979609418 1.70456530675669 8.15299926121481
58 1 4.43682294976242 4.24671879754174 8.1580060725052
59 1 2.9439714038846 6.80435069804449 8.16072765524335
60 1 1.47796677766215 9.3615155628008 8.16802591486226
61 1 8.84577974679614 1.70092916397444 8.15944945505242
62 1 7.3699198084151 4.25045616998523 8.15309213667941
63 1 5.91052296472701 6.81522120634147 8.14964041546136
64 1 4.42152551577375 9.35044162493926 8.15839406676836
65 1 1.47287995873879 0.844113072491698 10.4663765551999
66 1 0.00559380275691734 3.41402908400701 10.4928280693807
67 1 -1.47254041557441 5.96230387162847 10.4945121732007
68 1 -2.96255981448591 8.51871534304694 10.4804379366872
69 1 4.43773260280845 0.846630618391869 10.4835329333065
70 1 2.94482926987189 3.40662078458379 10.4683812533463
71 1 1.47857209400884 5.95421574947985 10.4942323912913
72 1 -0.00372774859420399 8.50599459757814 10.4945416642743
73 1 7.37953202267445 0.847351847291123 10.4860724591274
74 1 5.90612817201376 3.39819108512832 10.4897838808153
75 1 4.41863932489498 5.95911101956003 10.4684822169189
76 1 2.94203441994153 8.50033805542162 10.4928122239551
77 1 10.3213704927644 0.849068536176444 10.4791795382684
78 1 8.85183923933768 3.39756791817593 10.4861146946158
79 1 7.38139951155398 5.94599098116801 10.4838298268132
80 1 5.9016273854993 8.51471186634307 10.4664393930446
81 1 -0.00232748419233852 1.71961751059041 12.7903340260473
82 1 -1.47913389742572 4.2727054404848 12.8237245931813
83 1 -2.94740819843226 6.83637851112303 12.8299308114916
84 1 -4.44155003772487 9.37290091682625 12.722942531281
85 1 2.97489085869662 1.70497884304188 12.7627517067372
86 1 1.48965427165186 4.24363275173475 12.835670667653
87 1 0.0165128427516383 6.79863196356176 12.8233463356216
88 1 -1.49764407441533 9.34710954032039 12.829883494192
89 1 5.90833557549528 1.69321085707983 12.8167980721531
90 1 4.44427398466582 4.2431643305218 12.7809596685059
91 1 2.96539054468108 6.80009818157169 12.8353956473616
92 1 1.45620956700359 9.35699581599095 12.8238156190706
93 1 8.85287354885233 1.69703098934469 12.8236126610599
94 1 7.38419435474831 4.24970280043695 12.8167806827169
95 1 5.90693071413067 6.78482244022537 12.7636645585054
96 1 4.40588462017619 9.35449766642951 12.7904937346842
97 2 -5.06072183291656 9.73401710004007 1.90621615412084
