hcp

97  atoms
2  atom types

0.000000000000   11.792000000000      xlo xhi
0.000000000000   10.2121715614261      ylo yhi
0.000000000000   13.986660698208      zlo zhi
-5.8960000000000  0.000000000000   0.000000000000   xy xz yz

Atoms

1 1 1.51587391278598 0.875187245308412 1.11800529064834
2 1 -6.04338978194008e-07 3.43000312986585 1.13919987033761
3 1 -1.47702954684207 5.95534906094704 1.12855012245352
4 1 -2.92552610833042 8.49716737407657 1.13920733962509
5 1 4.41984991946788 0.852841316678619 1.14451185436244
6 1 2.94850730914068 3.40128173096477 1.14451288342844
7 1 1.47703097798897 5.95535136061427 1.1285490497859
8 1 2.02257801529271e-06 8.51364344867668 1.12855039700909
9 1 7.3721509545007 0.852841299789675 1.14451149023816
10 1 5.89599976261569 3.40405787899004 1.14619627957816
11 1 4.42465654287923 5.95804884845081 1.1445132272228
12 1 2.92553056280515 8.49717143872164 1.13920047816219
13 1 10.2761211382461 0.875195704738891 1.11799495519598
14 1 8.84349396712317 3.40128268377541 1.14451223766122
15 1 7.36734342064322 5.95804904239674 1.14451263198426
16 1 5.89600186414288 8.46178883069213 1.11799792053367
17 1 6.47051104629703e-06 1.8903165737478 3.48464914302429
18 1 -1.48106531900957 4.30232692524171 3.48464914302429
19 1 -2.91059042751452 6.77836517552258 3.48464914302429
20 1 -4.25893562477044 9.26701018796845 3.48464914302429
21 1 3.00361287270219 1.73413109257525 3.48464914302429
22 1 1.48106953623464 4.30233269315098 3.48464914302429
23 1 2.07954283570899e-06 6.80811091179646 3.48464914302429
24 1 -1.42953153762223 9.34364319653449 3.48464914302429
25 1 5.89600343073749 1.70762458864135 3.48464914302429
26 1 4.42685163778792 4.25226867854667 3.48464914302429
27 1 2.9106023884201 6.77835776762112 3.48464914302429
28 1 1.4295396517003 9.34364615359878 3.48464914302429
29 1 8.78838762360147 1.73413308497383 3.48464914302429
30 1 7.3651520917416 4.2522670256027 3.48464914302429
31 1 5.89600161379632 6.74389762937047 3.48464914302429
32 1 4.2589317786227 9.26700407337256 3.48464914302429
33 1 1.51587391278598 0.875187245308412 5.85129299540024
34 1 -6.04338978194008e-07 3.43000312986585 5.83009841571097
35 1 -1.47702954684207 5.95534906094704 5.84074816359507
36 1 -2.92552610833042 8.49716737407657 5.83009094642349
37 1 4.41984991946788 0.852841316678619 5.82478643168625
38 1 2.94850730914068 3.40128173096477 5.82478540262014
39 1 1.47703097798896 5.95535136061427 5.84074923626269
40 1 2.02257801262817e-06 8.51364344867668 5.84074788903949
41 1 7.3721509545007 0.852841299789675 5.82478679581043
42 1 5.89599976261569 3.40405787899004 5.82310200647053
43 1 4.42465654287923 5.95804884845081 5.82478505882578
44 1 2.92553056280516 8.49717143872164 5.8300978078864
45 1 10.2761211382461 0.875195704738891 5.8513033308525
46 1 8.84349396712317 3.40128268377541 5.82478604838746
47 1 7.36734342064322 5.95804904239674 5.82478565406432
48 1 5.89600186414288 8.46178883069213 5.85130036551492
49 1 2.10875920858555e-06 1.69085523250045 8.1379538801077
50 1 -1.47781027467349 4.25326968350694 8.15735801116482
51 1 -2.95146656193327 6.80571461844104 8.15735757630865
52 1 -4.43167641931 9.3667443217437 8.13795605904631
53 1 2.95142632705387 1.70400617300265 8.16142811203552
54 1 1.47781204535317 4.25326901222553 8.15735899841042
55 1 8.23043138975521e-07 6.80811636690854 8.1450881662311
56 1 -1.47365610839324 9.36536016411333 8.15735957268171
57 1 5.8960022077077 1.70174227718111 8.14867862428763
58 1 4.42175118456504 4.25521380536536 8.14867846236455
59 1 2.95146960041718 6.80571787678437 8.15735812030674
60 1 1.47365700342595 9.36535898369079 8.15736005474185
61 1 8.84057515759443 1.70400892172223 8.16142532015003
62 1 7.37024844643514 4.25521566236302 8.14867858382229
63 1 5.89599879071553 6.80415743462384 8.1614251054291
64 1 4.4316707494463 9.36673978217228 8.13795282289396
65 1 1.46554262910999 0.846134353734835 10.4779794921283
66 1 -2.92849281113838e-06 3.38501632216941 10.4779794921283
67 1 -1.46685907214028 5.96122758229984 10.4779794921283
68 1 -2.96449524730792 8.51966797725794 10.4779794921283
69 1 4.42837471827926 0.852540274104245 10.4779794921283
70 1 2.95250018883035 3.40881866773548 10.4779794921283
71 1 1.46685718822442 5.96122824684153 10.4779794921283
72 1 -2.35399221271138e-06 8.50190157496199 10.4779794921283
73 1 7.36362458564694 0.852541802353356 10.4779794921283
74 1 5.89599730589021 3.4040601377784 10.4779794921283
75 1 4.42012956369515 5.95081700708947 10.4779794921283
76 1 2.96449037325185 8.51966710397985 10.4779794921283
77 1 10.32645317629 0.846137328367523 10.4779794921283
78 1 8.83948817803953 3.40882011471659 10.4779794921283
79 1 7.37186624018455 5.95082115365447 10.4779794921283
80 1 5.89599612600631 8.5199008820312 10.4779794921283
81 1 2.10875925044096e-06 1.69085523250052 12.818005104149
82 1 -1.47781027467345 4.25326968350687 12.7986009730919
83 1 -2.95146656193323 6.80571461844096 12.7986014079479
84 1 -4.43167641931 9.3667443217437 12.8180029252103
85 1 2.95142632705387 1.70400617300265 12.7945308722211
86 1 1.47781204535317 4.25326901222553 12.7985999858462
87 1 8.23043138975521e-07 6.80811636690854 12.8108708180255
88 1 -1.47365610839324 9.36536016411333 12.7985994115749
89 1 5.8960022077077 1.70174227718111 12.8072803599691
90 1 4.42175118456504 4.25521380536536 12.807280521892
91 1 2.95146960041718 6.80571787678437 12.7986008639498
92 1 1.47365700342595 9.36535898369079 12.7985989295147
93 1 8.84057515759443 1.70400892172223 12.7945336641067
94 1 7.37024844643514 4.25521566236302 12.8072804004344
95 1 5.89599879071553 6.80415743462384 12.7945338788275
96 1 4.4316707494463 9.36673978217228 12.8180061613626
97 2 5.8959787107777 10.2121688004726 3.48464914302429
