hcp-stacking fault-O

41  atoms
2  atom types

0.000000000   25.5353652483668228      xlo xhi
0.000000000   5.89714000000000000      ylo yhi
0.000000000   4.65997899940000000      zlo zhi
1.47428500000 0.0000000 0.00000000     xy xz yz

Atoms

1 1 24.7104688568657 2.95523532468587 2.3299894997
2 1 0.283989012450383 2.95448903803498 0
3 1 5.1801376719539 2.94974300751601 0
4 1 10.2152811222578 2.9482544774115 0
5 1 15.276374789213 2.94696868956695 0
6 1 20.4255774418941 2.94741623174919 0
7 1 1.77558539231312 2.95379475024045 2.3299894997
8 1 6.85387756669683 2.95014895499241 2.3299894997
9 1 11.9018431539658 2.94810521711378 2.3299894997
10 1 16.9236905462964 2.94584903874427 2.3299894997
11 1 21.8506972109591 2.94288382992288 2.3299894997
12 1 2.69083080490529 1.47658818932335 0
13 1 7.69533634000851 1.47477590979729 0
14 1 12.7396157840372 1.47331435337754 0
15 1 17.8385978315969 1.47256476525441 0
16 1 23.0676269687759 1.47409040183293 0
17 1 4.31036090173299 1.47706119015119 2.3299894997
18 1 9.38292343983807 1.47478627093847 2.3299894997
19 1 14.417190423018 1.47274664482209 2.3299894997
20 1 19.4057281838774 1.47001263565597 2.3299894997
21 1 24.7014167873943 5.90328270321127 2.3299894997
22 1 0.189218019911607 5.89758743222962 0
23 1 5.18657074559215 5.89868442119568 0
24 1 10.215117098388 5.89681500748896 0
25 1 15.2764903686266 5.89554536254751 0
26 1 20.422832182678 5.89582773413445 0
27 1 1.74734477110482 5.90073427721478 2.3299894997
28 1 6.85538027204888 5.89880571372636 2.3299894997
29 1 11.9017887779171 5.89667207771115 2.3299894997
30 1 16.9236885821423 5.89441892534378 2.3299894997
31 1 21.8454767228966 5.89115242490405 2.3299894997
32 1 2.69326809394471 4.42529890627165 0
33 1 7.695025011397 4.42332793523153 0
34 1 12.7407459444834 4.42194960322132 0
35 1 17.8296950159021 4.42062076095062 0
36 1 23.1676545192914 4.42843549515459 0
37 1 4.31155373172195 4.42570005822271 2.3299894997
38 1 9.3825664425304 4.4233356596893 2.3299894997
39 1 14.4177200746859 4.42134722427539 2.3299894997
40 1 19.4089611713955 4.41876929227737 2.3299894997
41 2 23.2370819613759 4.42044479374509 2.32965491699414
