hcp-stacking fault-O

41  atoms
2  atom types

0.000000000   25.5353652483668228      xlo xhi
0.000000000   5.89714000000000000      ylo yhi
0.000000000   4.65997899940000000      zlo zhi

Atoms

1 1 24.68419 1.47429 2.32999
2 1 0 0 0
3 1 5.10707 0 0
4 1 10.21414 0 0
5 1 15.32121 0 0
6 1 20.42828 0 0
7 1 1.70236 0 2.32999
8 1 6.80943 0 2.32999
9 1 11.9165 0 2.32999
10 1 17.02357 0 2.32999
11 1 22.13064 0 2.32999
12 1 2.55354 1.47429 0
13 1 7.66062 1.47429 0
14 1 12.76769 1.47429 0
15 1 17.87476 1.47429 0
16 1 22.98183 1.47429 0
17 1 4.25591 1.47429 2.32999
18 1 9.36298 1.47429 2.32999
19 1 14.47005 1.47429 2.32999
20 1 19.57712 1.47429 2.32999
21 1 24.68419 4.42286 2.32999
22 1 0 2.94857 0
23 1 5.10707 2.94857 0
24 1 10.21414 2.94857 0
25 1 15.32121 2.94857 0
26 1 20.42828 2.94857 0
27 1 1.70236 2.94857 2.32999
28 1 6.80943 2.94857 2.32999
29 1 11.9165 2.94857 2.32999
30 1 17.02357 2.94857 2.32999
31 1 22.13064 2.94857 2.32999
32 1 2.55354 4.42286 0
33 1 7.66062 4.42286 0
34 1 12.76769 4.42286 0
35 1 17.87476 4.42286 0
36 1 22.98183 4.42286 0
37 1 4.25591 4.42286 2.32999
38 1 9.36298 4.42286 2.32999
39 1 14.47005 4.42286 2.32999
40 1 19.57712 4.42286 2.32999
41 1 23.83297 2.94857 1.16499