hcp-stacking fault-O

81  atoms
2  atom types

0.000000000   25.5353652483668228      xlo xhi
0.000000000   5.89714000000000000      ylo yhi
0.000000000   9.31995799880000000      zlo zhi
1.47428500000 0.0000000 0.00000000     xy xz yz

Atoms

1 1 24.5247212080761 2.94946828096314 2.3299894997
2 1 0.183633158065562 5.89204225884995 0
3 1 5.19568284983798 5.89610030129235 0
4 1 10.2294488831278 5.89700406933548 0
5 1 15.2722317820147 5.89735934573157 0
6 1 20.4032850474859 5.89876781462083 0
7 1 1.71217965694112 5.89626522078493 2.3299894997
8 1 6.86209248880948 5.89692910802301 2.3299894997
9 1 11.9174396317986 5.89705986580329 2.3299894997
10 1 16.9389139928951 5.89720120073329 2.3299894997
11 1 21.9267356852718 5.89668658033736 2.3299894997
12 1 2.6864642898997 1.4717981135858 0
13 1 7.71416398136622 1.47399543779939 0
14 1 12.7459298818263 1.47431217504155 0
15 1 17.8252479532029 1.47519361795937 0
16 1 23.0774891158265 1.48048866586572 0
17 1 4.30395215839353 1.4735911878408 2.3299894997
18 1 9.39689370851254 1.47416116196486 2.3299894997
19 1 14.4321174514486 1.47428259085291 2.3299894997
20 1 19.4361268574615 1.47460553415159 2.3299894997
21 1 24.5893653106716 5.89609655180844 2.3299894997
22 1 0.183783056045295 2.94348472649505 0
23 1 5.19561950452601 2.94752834640677 0
24 1 10.2293332953048 2.94843080058479 0
25 1 15.2738620938109 2.9488324010965 0
26 1 20.383517532571 2.95054780194561 0
27 1 1.71243668808245 2.94770920930598 2.3299894997
28 1 6.86204447880656 2.9483580385219 2.3299894997
29 1 11.9172994584336 2.94849198703638 2.3299894997
30 1 16.9419076209421 2.94851293476535 2.3299894997
31 1 21.8672473389585 2.94988953121459 2.3299894997
32 1 2.68224732186723 4.42020533857712 0
33 1 7.71281965996503 4.42245718092881 0
34 1 12.7459719980076 4.42288630897807 0
35 1 17.825008855437 4.42375492071646 0
36 1 23.0784460950398 4.42909519115187 0
37 1 4.29640793342868 4.42226186447959 2.3299894997
38 1 9.39742183019389 4.42272930828839 2.3299894997
39 1 14.4321568793631 4.42285486722462 2.3299894997
40 1 19.4356670255621 4.42315068810221 2.3299894997
41 1 24.5247212080761 2.94946828096314 6.9899684991
42 1 0.295267275878038 5.89848745764692 4.6599789994
43 1 5.21536754608553 5.89723679776009 4.6599789994
44 1 10.2300973998513 5.89704151146597 4.6599789994
45 1 15.2713373354702 5.89730770483625 4.6599789994
46 1 20.3826007608656 5.89757360677601 4.6599789994
47 1 1.71217965694112 5.89626522078493 6.9899684991
48 1 6.86209248880948 5.89692910802301 6.9899684991
49 1 11.9174396317986 5.89705986580329 6.9899684991
50 1 16.9389139928951 5.89720120073329 6.9899684991
51 1 21.9267356852718 5.89668658033736 6.9899684991
52 1 2.72611738709032 1.47408748621952 4.6599789994
53 1 7.71668973597752 1.47414126230987 4.6599789994
54 1 12.7453425960904 1.47427826808378 4.6599789994
55 1 17.8171046000938 1.47472346124841 4.6599789994
56 1 22.9681753723798 1.47417743394521 4.6599789994
57 1 4.30395215839353 1.4735911878408 6.9899684991
58 1 9.39689370851254 1.47416116196486 6.9899684991
59 1 14.4321174514486 1.47428259085291 6.9899684991
60 1 19.4361268574615 1.47460553415159 6.9899684991
61 1 24.5893653106716 5.89609655180844 6.9899684991
62 1 0.294857794755905 2.94989762952452 4.6599789994
63 1 5.21518781065675 2.94865812308799 4.6599789994
64 1 10.2301465316814 2.94847775280888 4.6599789994
65 1 15.2710018867668 2.94866726696582 4.6599789994
66 1 20.3651013127821 2.94948454100036 4.6599789994
67 1 1.71243668808245 2.94770920930598 6.9899684991
68 1 6.86204447880656 2.9483580385219 6.9899684991
69 1 11.9172994584336 2.94849198703638 6.9899684991
70 1 16.9419076209421 2.94851293476535 6.9899684991
71 1 21.8672473389585 2.94988953121459 6.9899684991
72 1 2.7314998207164 4.423048932924 4.6599789994
73 1 7.71810677776937 4.42276243281757 4.6599789994
74 1 12.7452932851168 4.42284712347105 4.6599789994
75 1 17.8168376312036 4.42328315486539 4.6599789994
76 1 22.9681269274621 4.42272591104209 4.6599789994
77 1 4.29640793342868 4.42226186447959 6.9899684991
78 1 9.39742183019389 4.42272930828839 6.9899684991
79 1 14.4321568793631 4.42285486722462 6.9899684991
80 1 19.4356670255621 4.42315068810221 6.9899684991
81 2 24.4430058874488 2.94910556980829 4.6599789994
