hcp-stacking fault-O

81  atoms
2 atom types

0.000000000   25.5353652483668228      xlo xhi
0.000000000   5.89714000000000000      ylo yhi
0.000000000   9.31995799880000000      zlo zhi

Atoms

1 1 24.32066 2.94854 2.45142
2 1 0.21519 4e-05 0
3 1 5.22679 1e-05 0
4 1 10.22996 1e-04 0
5 1 15.26918 0 0
6 1 20.39121 -2e-05 0
7 1 1.79238 0.00018 2.3252
8 1 6.87339 -1e-04 2.32849
9 1 11.91784 0 2.3303
10 1 16.93057 1e-05 2.33177
11 1 21.87135 -3e-05 2.31432
12 1 2.72714 1.48875 0
13 1 7.7204 1.4735 0
14 1 12.74577 1.47429 0
15 1 17.81842 1.4674 0
16 1 23.12629 1.49209 0
17 1 4.34173 1.4774 2.31401
18 1 9.39751 1.47384 2.32966
19 1 14.43236 1.4746 2.33039
20 1 19.43663 1.47535 2.32204
21 1 24.40349 2e-05 2.28589
22 1 0.15534 2.94848 0
23 1 5.23083 2.94873 0
24 1 10.22942 2.94848 0
25 1 15.26963 2.94857 0
26 1 20.35694 2.94859 0
27 1 1.77719 2.94838 2.31407
28 1 6.87804 2.94874 2.32625
29 1 11.91751 2.94856 2.32986
30 1 16.93944 2.94856 2.32698
31 1 21.81864 2.9486 2.2655
32 1 2.72661 4.40841 0
33 1 7.72108 4.42365 0
34 1 12.74561 4.42284 0
35 1 17.81839 4.42974 0
36 1 23.12646 4.40505 0
37 1 4.34132 4.41979 2.3139
38 1 9.39784 4.42329 2.32957
39 1 14.43235 4.42254 2.3304
40 1 19.43658 4.42177 2.32204
41 1 24.32066 2.94854 6.86853
42 1 0.35456 -7e-05 4.65998
43 1 5.25341 -0.00019 4.65998
44 1 10.23038 0.00011 4.65998
45 1 15.27117 1e-05 4.65998
46 1 20.36733 -1e-04 4.65998
47 1 1.79238 0.00018 6.99476
48 1 6.87339 -1e-04 6.99147
49 1 11.91784 0 6.98966
50 1 16.93057 1e-05 6.98819
51 1 21.87135 -3e-05 7.00564
52 1 2.80939 1.48206 4.65998
53 1 7.728 1.47451 4.65998
54 1 12.74617 1.47451 4.65998
55 1 17.8196 1.47422 4.65998
56 1 22.99519 1.39306 4.65998
57 1 4.34173 1.4774 7.00595
58 1 9.39751 1.47384 6.9903
59 1 14.43236 1.4746 6.98956
60 1 19.43663 1.47535 6.99792
61 1 24.40349 2e-05 7.03407
62 1 0.49886 2.94849 4.65998
63 1 5.26466 2.9487 4.65998
64 1 10.23121 2.94847 4.65998
65 1 15.27307 2.94857 4.65998
66 1 20.3709 2.94863 4.65998
67 1 1.77719 2.94838 7.00589
68 1 6.87804 2.94874 6.99371
69 1 11.91751 2.94856 6.99009
70 1 16.93944 2.94856 6.99298
71 1 21.81864 2.9486 7.05445
72 1 2.80927 4.41513 4.65998
73 1 7.72901 4.42261 4.65998
74 1 12.746 4.42262 4.65998
75 1 17.81956 4.42292 4.65998
76 1 22.99585 4.50408 4.65998
77 1 4.34132 4.41979 7.00606
78 1 9.39784 4.42329 6.99039
79 1 14.43235 4.42254 6.98956
80 1 19.43658 4.42177 6.99791
81 2 24.13986 2.94828 4.65998